13
Properties=species:S:1:pos:R:3:masses:R:1 calc="_JSON {\"xc\": \"WB97X-D3\", \"basis\": \"def2-TZVP\", \"package\": \"nwchem\"}" symmetry_number=1 freqs="39.83 69.76 78.19 110.7 120.45 170.69 187.77 533.42 650.7 787.81 908.44 1105.51 1127.38 1150.69 1159.12 1187.89 1391.73 1428.99 1439.09 1467.69 1481.95 1488.15 1499.83 1522.18 1836.05 2942.67 3006.56 3056.97 3060.17 3128.31 3131.31 3173.17 3740.9" zpe=2.9870316231211507 energy=-7335.992982186778 pbc="F F F"
C        2.02983851       1.27525901       0.02290403      12.00000000
O        1.04636148       0.82701358       0.92486099      15.99491000
C       -1.11501273      -1.56690636      -0.13093552      12.00000000
C       -1.86445908      -0.35845739      -0.58889757      12.00000000
O       -1.50631200       0.78045482      -0.42347166      15.99491000
H        3.00420496       1.07815091       0.47103538       1.00783000
H        1.98345724       0.74876722      -0.93879344       1.00783000
H        1.95379750       2.35169850      -0.16942060       1.00783000
H       -0.19678325      -1.29060332       0.38536540       1.00783000
H       -1.75876052      -2.15791071       0.52594573       1.00783000
H       -0.89126735      -2.19565122      -0.99708119       1.00783000
H       -2.81793688      -0.55249637      -1.11910955       1.00783000
H        0.17770612       0.99501232       0.53530499       1.00783000
