16
Properties=species:S:1:pos:R:3:masses:R:1 calc="_JSON {\"xc\": \"WB97X-D3\", \"basis\": \"def2-TZVP\", \"package\": \"nwchem\"}" symmetry_number=1 freqs="172.09 222.72 229.3 349.73 370.06 510.14 642.44 746.49 789.39 829.33 886.16 920.17 946.33 981.08 982.18 1019.02 1053.51 1123.04 1170.54 1197.53 1225.63 1279.82 1288.12 1333.58 1346.47 1375.2 1392.54 1403.72 1426.09 1492.5 1498.42 1509.35 2945.42 2966.14 3052.42 3065.72 3087.58 3112.96 3118.47 3122.69 3125.02 3133.2" zpe=3.8709298444638254 energy=-6382.551034127802 pbc="F F F"
C        0.82764530      -0.70237031      -0.87628223      12.00000000
C        0.50665879      -0.30111545       0.57691509      12.00000000
C        1.04141829       1.09008262       0.90509735      12.00000000
C       -0.28138453      -0.36164452      -1.78927442      12.00000000
C       -1.39202507      -0.02006432      -0.87415009      12.00000000
C       -1.02670464      -0.37087228       0.57743365      12.00000000
H        0.73504816      -1.80337872      -0.99193394       1.00783000
H        1.82783671      -0.46599317      -1.24458886       1.00783000
H        0.93317487      -1.01432468       1.28627488       1.00783000
H        2.12970126       1.12138327       0.81880312       1.00783000
H        0.77873824       1.38203151       1.92376990       1.00783000
H        0.63957230       1.84770987       0.22650155       1.00783000
H       -2.37953750      -0.32473684      -1.22371535       1.00783000
H       -1.37498226       1.07712640      -1.02748890       1.00783000
H       -1.36161017      -1.38691610       0.80378253       1.00783000
H       -1.48470073       0.29343871       1.31258873       1.00783000
