13
Properties=species:S:1:pos:R:3:masses:R:1 calc="_JSON {\"xc\": \"WB97X-D3\", \"basis\": \"def2-TZVP\", \"package\": \"nwchem\"}" symmetry_number=1 freqs="54.44 63.2 84.78 144.84 189.49 212.18 258.02 328.35 474.21 535.57 726.02 889.47 900.8 999.06 1124.17 1175.06 1186.37 1278.27 1351.76 1435.23 1487.77 1497.22 1507.83 1655.04 1742.47 3044.48 3117.53 3162.55 3176.87 3192.46 3290.15 3817.1 3935.97" zpe=2.9780216914963535 energy=-7335.4941928701555 pbc="F F F"
C        1.61503552       0.63276112       0.31500381      12.00000000
O        0.27677750       0.27704810       0.62511628      15.99491000
C       -0.09807539      -0.96805708       0.24020801      12.00000000
C       -1.36183853      -1.36106120       0.25386937      12.00000000
O       -1.11331664       1.67655972      -1.57110674      15.99491000
H        1.79868552       1.59637182       0.78458727       1.00783000
H        2.31638372      -0.10406035       0.71613687       1.00783000
H        1.75092631       0.72679460      -0.76586657       1.00783000
H       -1.46920027       0.86485931      -1.93663384       1.00783000
H        0.71325933      -1.62395500      -0.06765405       1.00783000
H       -1.61023111      -2.37206021      -0.03312671       1.00783000
H       -2.15672773      -0.69792356       0.57098106       1.00783000
H       -0.82264624       1.42666974      -0.68717677       1.00783000
