13
Properties=species:S:1:pos:R:3:masses:R:1 calc="_JSON {\"xc\": \"WB97X-D3\", \"basis\": \"def2-TZVP\", \"package\": \"nwchem\"}" symmetry_number=1 freqs="46.57 59.98 66.43 81.78 94.94 97.74 104.64 776.1 822.4 844.59 960.97 975.72 1074.25 1081.93 1163.74 1176.02 1208.2 1237.61 1274.94 1325.8 1390.98 1501.54 1524.34 1553.37 1627.73 3040.22 3056.38 3083.03 3098.17 3121.54 3176.34 3871.74 3979.26" zpe=3.0065541748431888 energy=-7335.277575463932 pbc="F F F"
C        0.73869772       0.16690720       0.25678675      12.00000000
O        1.38766864      -0.94915866       0.89009840      15.99491000
C        0.30952811      -1.82950769       0.54128603      12.00000000
C       -0.44474830      -0.70244343      -0.17513513      12.00000000
O       -0.99139678       2.32390140      -1.26293099      15.99491000
H        0.50631758       0.95990510       0.97226390       1.00783000
H        1.34319520       0.58494229      -0.55173030       1.00783000
H       -0.51298341       2.72485738      -1.98990401       1.00783000
H        0.64933796      -2.65489807      -0.09135477       1.00783000
H       -0.17935207      -2.24086677       1.42962944       1.00783000
H       -0.55801291      -0.82356066      -1.24993670       1.00783000
H       -1.40492874      -0.42578070       0.25356862       1.00783000
H       -1.21194099       3.04613561      -0.67317424       1.00783000
