16
Properties=species:S:1:pos:R:3:masses:R:1 calc="_JSON {\"xc\": \"WB97X-D3\", \"basis\": \"def2-TZVP\", \"package\": \"nwchem\"}" symmetry_number=2 freqs="304.84 434.95 503.79 655.96 838.21 845.3 859.3 867.89 875.23 932.88 960.89 978.76 981.38 987.2 1059.83 1086.75 1090.24 1111.37 1160.54 1163.81 1230.02 1259.61 1261.55 1269.78 1299.24 1306.24 1336.93 1354.12 1491.59 1499.84 1509.85 1537.7 3068.23 3073.13 3073.53 3084.64 3113.93 3131.71 3131.94 3134.48 3138.47 3145.78" zpe=4.038873878889103 energy=-6384.965553015415 pbc="F F F"
C        0.91693053      -0.75471828      -0.68585149      12.00000000
C        0.47609701      -0.58788246       0.78671927      12.00000000
C        0.82671580       0.90804715       0.60943371      12.00000000
C        0.29687478       0.65511348      -0.82069152      12.00000000
C       -1.18798262       0.37478729      -0.56425346      12.00000000
C       -1.05147560      -0.57192776       0.66160176      12.00000000
H        0.47663894      -1.56949654      -1.26562223       1.00783000
H        2.00089598      -0.74865069      -0.80199530       1.00783000
H        0.90598977      -1.18778368       1.58737862       1.00783000
H        1.90104849       1.09198206       0.63213950       1.00783000
H        0.30238418       1.63724014       1.23164687       1.00783000
H        0.54463968       1.31609496      -1.64986607       1.00783000
H       -1.66908971      -0.10707581      -1.41728187       1.00783000
H       -1.74595008       1.28414524      -0.33373334       1.00783000
H       -1.46065747      -1.56629587       0.47398399       1.00783000
H       -1.53305967      -0.17357924       1.55639155       1.00783000
