13
Properties=species:S:1:pos:R:3:masses:R:1 calc="_JSON {\"xc\": \"WB97X-D3\", \"basis\": \"def2-TZVP\", \"package\": \"nwchem\"}" symmetry_number=1 freqs="98.66 142.5 230.06 278.67 371.46 417.76 554.29 856.26 920.21 1049.44 1108.37 1140.89 1189.51 1193.52 1218.47 1266.97 1279.44 1384.04 1407.61 1449.27 1484.33 1493.81 1503.63 1506.5 1523.86 2990.4 3005.7 3018.34 3038.24 3058.43 3115.13 3153.91 3861.33" zpe=3.1188850975263076 energy=-7335.912457129585 pbc="F F F"
C        1.78212410       0.60742032       0.46080834      12.00000000
O        0.38247969       0.51474451       0.42307228      15.99491000
C       -0.07993759      -0.59801865      -0.30715752      12.00000000
C       -1.58611437      -0.50196637      -0.37458625      12.00000000
O       -2.00475112       0.66482008      -1.04450429      15.99491000
H        2.03868576       1.48872823       1.04704174       1.00783000
H        2.22783734      -0.27688040       0.93409705       1.00783000
H        2.20390604       0.71185432      -0.54709579       1.00783000
H        0.34240562      -0.58508415      -1.32206301       1.00783000
H        0.22362014      -1.53535119       0.18163123       1.00783000
H       -1.98372263      -1.35298050      -0.93057647       1.00783000
H       -1.99543074      -0.53976211       0.64340433       1.00783000
H       -1.55110224       1.40247592      -0.62794758       1.00783000
