16
Properties=species:S:1:pos:R:3:masses:R:1 calc="_JSON {\"xc\": \"WB97X-D3\", \"basis\": \"def2-TZVP\", \"package\": \"nwchem\"}" symmetry_number=2 freqs="105.99 147.1 152.16 268.24 285.58 487.41 538.61 579.43 628.55 814.79 875.37 959.59 970.16 976.06 998.65 1015.15 1054.67 1061.5 1094.84 1139.75 1223.48 1283.96 1335.51 1340.66 1396.83 1414.37 1448.79 1451.65 1478.5 1487.89 1742.08 1745.66 3039.88 3043.73 3071.49 3074.56 3153.37 3155.35 3171.3 3171.93 3251.1 3252.44" zpe=3.8985671619054587 energy=-6384.457915062505 pbc="F F F"
C        1.11463914      -0.67924573      -1.55152933      12.00000000
C        0.01252419      -0.16340281       1.65121456      12.00000000
C        0.90303429       0.81550862       1.62176251      12.00000000
C        0.10033165       0.16531275      -1.65203310      12.00000000
C       -1.00803472       0.37100994      -0.65915237      12.00000000
C       -0.99385953      -0.50324633       0.58884472      12.00000000
H        1.25808456      -1.30975644      -0.68158902       1.00783000
H        1.85285546      -0.76140730      -2.33973089       1.00783000
H       -0.02943024      -0.79722919       2.53436352       1.00783000
H        1.01031126       1.47473517       0.76799995       1.00783000
H        1.57407707       0.98474319       2.45478777       1.00783000
H        0.02735271       0.78074656      -2.54608432       1.00783000
H       -1.95366216       0.20707303      -1.18691616       1.00783000
H       -1.02960305       1.42805534      -0.36891973       1.00783000
H       -0.86184374      -1.55316626       0.30227796       1.00783000
H       -1.98482287      -0.46189756       1.05356592       1.00783000
