13
Properties=species:S:1:pos:R:3:masses:R:1 calc="_JSON {\"xc\": \"WB97X-D3\", \"basis\": \"def2-TZVP\", \"package\": \"nwchem\"}" symmetry_number=1 freqs="34.04 66.53 83.67 120.3 122.65 210.11 643.21 832.55 897.79 928.94 1070.74 1108.1 1132.57 1177.32 1185.89 1189.25 1191.88 1193.53 1331.0 1437.62 1491.77 1501.39 1504.62 1519.05 1547.59 3009.37 3062.76 3127.85 3131.3 3135.48 3218.66 3232.28 3730.57" zpe=3.0481750499881755 energy=-7334.8867654402775 pbc="F F F"
C        1.93580078       1.19860863       0.80547142      12.00000000
O        0.64040035       0.68844272       1.01300301      15.99491000
C       -0.82742109      -1.30167072      -1.15602906      12.00000000
C       -1.95326799      -0.69198689      -0.46060936      12.00000000
O       -1.02703128       0.10760137      -1.18911938      15.99491000
H        1.92161513       2.24883263       0.49121421       1.00783000
H        2.47082954       1.13610397       1.75348083       1.00783000
H        2.49579670       0.62170202       0.05914403       1.00783000
H       -0.98728349      -1.80455595      -2.10400458       1.00783000
H        0.03342884      -1.62545910      -0.57955328       1.00783000
H       -2.94560969      -0.74289817      -0.89620164       1.00783000
H       -1.90735868      -0.57441918       0.61748616       1.00783000
H        0.14531288       0.74080568       0.18403564       1.00783000
