13
Properties=species:S:1:pos:R:3:masses:R:1 calc="_JSON {\"xc\": \"WB97X-D3\", \"basis\": \"def2-TZVP\", \"package\": \"nwchem\"}" symmetry_number=1 freqs="92.88 128.22 190.57 235.05 274.67 319.23 463.55 597.17 773.84 888.16 912.46 1049.81 1104.73 1127.28 1171.88 1191.15 1221.62 1274.85 1297.55 1370.82 1421.34 1431.15 1470.98 1506.45 1520.35 2962.31 3030.07 3034.8 3074.53 3089.73 3160.63 3774.94 3915.89" zpe=3.0424891346955767 energy=-7332.17863364263 pbc="F F F"
C        2.29062317       0.41946845       0.33790946      12.00000000
O        0.61560303       0.45056196       0.48923192      15.99491000
C        0.03025443      -0.65770647      -0.20721170      12.00000000
C       -1.42896634      -0.36430657      -0.44043081      12.00000000
O       -1.47729780       0.85082354      -1.16671867      15.99491000
H        2.48861984       1.15112171       1.13944426       1.00783000
H        2.44129203      -0.55057783       0.84384728       1.00783000
H        0.38900495       1.23396872      -0.03179369       1.00783000
H        0.57830859      -0.78823623      -1.14375783       1.00783000
H        0.16838578      -1.53306657       0.42534715       1.00783000
H       -1.87383862      -1.19195418      -1.00418685       1.00783000
H       -1.95233681      -0.27176120       0.51765647       1.00783000
H       -2.37208324       1.19155466      -1.17589499       1.00783000
