9
Properties=species:S:1:pos:R:3:masses:R:1 calc="_JSON {\"xc\": \"WB97X-D3\", \"basis\": \"def2-TZVP\", \"package\": \"nwchem\"}" symmetry_number=1 freqs="117.7 287.96 344.9 687.51 700.62 739.44 843.99 974.43 1028.68 1080.39 1091.29 1137.09 1344.25 1425.55 1480.51 1489.1 1525.98 1660.01 3087.13 3159.86 3186.92" zpe=1.6981687771904874 energy=-8637.693380957324 pbc="F F F"
C       -1.30871309       0.00679852       0.03184268      12.00000000
C        0.17154807      -0.03442246       0.02095536      12.00000000
N        0.90544823      -0.90008807       0.63951745      14.00307000
O        2.16825329      -0.54832658       0.34366689      15.99491000
N        2.14993046       0.54493536      -0.46309977      14.00307000
N        0.96132639       0.86548664      -0.66598782      14.00307000
H       -1.65584429       0.95046457       0.45303758       1.00783000
H       -1.69336013      -0.06799759      -0.98539235       1.00783000
H       -1.69858892      -0.81685039       0.62545996       1.00783000
